; ============================================================
; NPT Equilibration
; GROMACS 2024.2 | CHARMM36
; ============================================================

integrator              = md
dt                      = 0.002
nsteps                  = 50000

; Output
nstxout-compressed      = 5000
nstenergy               = 1000
nstlog                  = 1000

; Neighbor searching
cutoff-scheme           = Verlet
nstlist                 = 20

; Electrostatics
coulombtype             = PME
rcoulomb                = 1.0

; van der Waals
vdwtype                 = Cut-off
rvdw                    = 1.0

; Periodic boundary conditions
pbc                     = xyz

; Temperature coupling
tcoupl                  = V-rescale
tc-grps                 = Protein non-Protein
tau_t                   = 0.1 0.1
ref_t                   = 300 300

; Pressure coupling
pcoupl                  = C-rescale
pcoupltype              = isotropic
tau_p                   = 2.0
ref_p                   = 1.0
compressibility         = 4.5e-5

; Position restraints
refcoord_scaling        = com

; Constraints
constraints             = h-bonds
constraint_algorithm    = lincs

; Continuation from NVT
continuation            = yes

; Do not generate new velocities
gen_vel                 = no

; Center of mass motion
nstcomm                 = 100
comm-mode               = Linear
